TITLE="privet"
VARIABLES="x", "y", "z"
ZONE T="zone", I=100, J=100, F=POINT
-6.28319 -6.28319 1.1391e-018
-6.15752 -6.28319 2.48907e-018
-6.03186 -6.28319 5.3537e-018
-5.90619 -6.28319 1.13348e-017
-5.78053 -6.28319 2.3622e-017
-5.65487 -6.28319 4.84574e-017
-5.5292 -6.28319 9.78467e-017
-5.40354 -6.28319 1.94479e-016
-5.27788 -6.28319 3.8049e-016
-5.15221 -6.28319 7.32748e-016
-5.02655 -6.28319 1.38902e-015
-4.90088 -6.28319 2.59181e-015
-4.77522 -6.28319 4.76036e-015
-4.64956 -6.28319 8.60635e-015
-4.52389 -6.28319 1.53158e-014
-4.39823 -6.28319 2.68289e-014
-4.27257 -6.28319 4.62602e-014
-4.1469 -6.28319 7.85153e-014
-4.02124 -6.28319 1.31172e-013
-3.89557 -6.28319 2.15711e-013
-3.76991 -6.28319 3.49176e-013
-3.64425 -6.28319 5.56364e-013
-3.51858 -6.28319 8.72599e-013
-3.39292 -6.28319 1.34714e-012
-3.26726 -6.28319 2.04716e-012
-3.14159 -6.28319 3.0622e-012
-3.01593 -6.28319 4.50877e-012
-2.89026 -6.28319 6.53466e-012
-2.7646 -6.28319 9.32246e-012
-2.63894 -6.28319 1.30912e-011
-2.51327 -6.28319 1.80955e-011
-2.38761 -6.28319 2.46209e-011
-2.26195 -6.28319 3.29745e-011
-2.13628 -6.28319 4.34706e-011
-2.01062 -6.28319 5.64098e-011
-1.88495 -6.28319 7.20535e-011
-1.75929 -6.28319 9.05935e-011
-1.63363 -6.28319 1.1212e-010
-1.50796 -6.28319 1.36587e-010
-1.3823 -6.28319 1.63786e-010
-1.25664 -6.28319 1.93324e-010
-1.13097 -6.28319 2.24615e-010
-1.00531 -6.28319 2.56881e-010
-0.879644 -6.28319 2.89179e-010
-0.75398 -6.28319 3.20439e-010
-0.628317 -6.28319 3.49514e-010
-0.502653 -6.28319 3.75254e-010
-0.376989 -6.28319 3.96578e-010
-0.251325 -6.28319 4.12548e-010
-0.125662 -6.28319 4.22436e-010
1.93715e-006 -6.28319 4.25785e-010
0.125666 -6.28319 4.22436e-010
0.251329 -6.28319 4.12547e-010
0.376993 -6.28319 3.96578e-010
0.502657 -6.28319 3.75254e-010
0.62832 -6.28319 3.49513e-010
0.753984 -6.28319 3.20438e-010
0.879648 -6.28319 2.89178e-010
1.00531 -6.28319 2.5688e-010
1.13098 -6.28319 2.24614e-010
1.25664 -6.28319 1.93323e-010
1.3823 -6.28319 1.63785e-010
1.50797 -6.28319 1.36586e-010
1.63363 -6.28319 1.12119e-010
1.75929 -6.28319 9.05929e-011
1.88496 -6.28319 7.20529e-011
2.01062 -6.28319 5.64093e-011
2.13629 -6.28319 4.34702e-011
2.26195 -6.28319 3.29743e-011
2.38761 -6.28319 2.46207e-011
2.51328 -6.28319 1.80953e-011
2.63894 -6.28319 1.30911e-011
2.7646 -6.28319 9.32236e-012
2.89027 -6.28319 6.53459e-012
3.01593 -6.28319 4.50872e-012
3.1416 -6.28319 3.06217e-012
3.26726 -6.28319 2.04714e-012
3.39292 -6.28319 1.34712e-012
3.51859 -6.28319 8.72588e-013
3.64425 -6.28319 5.56356e-013
3.76991 -6.28319 3.49171e-013
3.89558 -6.28319 2.15708e-013
4.02124 -6.28319 1.3117e-013
4.14691 -6.28319 7.8514e-014
4.27257 -6.28319 4.62595e-014
4.39823 -6.28319 2.68284e-014
4.5239 -6.28319 1.53156e-014
4.64956 -6.28319 8.6062e-015
4.77522 -6.28319 4.76028e-015
4.90089 -6.28319 2.59176e-015
5.02655 -6.28319 1.38899e-015
5.15222 -6.28319 7.32734e-016
5.27788 -6.28319 3.80482e-016
5.40354 -6.28319 1.94475e-016
5.52921 -6.28319 9.78447e-017
5.65487 -6.28319 4.84564e-017
5.78053 -6.28319 2.36215e-017
5.9062 -6.28319 1.13346e-017
6.03186 -6.28319 5.35358e-018
6.15753 -6.28319 2.48901e-018
-6.28319 -6.15752 2.48907e-018
-6.15752 -6.15752 5.43892e-018
-6.03186 -6.15752 1.16985e-017
-5.90619 -6.15752 2.4768e-017
-5.78053 -6.15752 5.16171e-017
-5.65487 -6.15752 1.05886e-016
-5.5292 -6.15752 2.13807e-016
-5.40354 -6.15752 4.24962e-016
-5.27788 -6.15752 8.31419e-016
-5.15221 -6.15752 1.60115e-015
-5.02655 -6.15752 3.03518e-015
-4.90088 -6.15752 5.66343e-015
-4.77522 -6.15752 1.0402e-014
-4.64956 -6.15752 1.8806e-014
-4.52389 -6.15752 3.3467e-014
-4.39823 -6.15752 5.86245e-014
-4.27257 -6.15752 1.01084e-013
-4.1469 -6.15752 1.71566e-013
-4.02124 -6.15752 2.86628e-013
-3.89557 -6.15752 4.71356e-013
-3.76991 -6.15752 7.62994e-013
-3.64425 -6.15752 1.21573e-012
-3.51858 -6.15752 1.90674e-012
-3.39292 -6.15752 2.94367e-012
-3.26726 -6.15752 4.47331e-012
-3.14159 -6.15752 6.6913e-012
-3.01593 -6.15752 9.85222e-012
-2.89026 -6.15752 1.42791e-011
-2.7646 -6.15752 2.03707e-011
-2.63894 -6.15752 2.86059e-011
-2.51327 -6.15752 3.9541e-011
-2.38761 -6.15752 5.37998e-011
-2.26195 -6.15752 7.20535e-011
-2.13628 -6.15752 9.49887e-011
-2.01062 -6.15752 1.23262e-010
-1.88495 -6.15752 1.57446e-010
-1.75929 -6.15752 1.97958e-010
-1.63363 -6.15752 2.44995e-010
-1.50796 -6.15752 2.98459e-010
-1.3823 -6.15752 3.57892e-010
-1.25664 -6.15752 4.22437e-010
-1.13097 -6.15752 4.90811e-010
-1.00531 -6.15752 5.61317e-010
-0.879644 -6.15752 6.31893e-010
-0.75398 -6.15752 7.00199e-010
-0.628317 -6.15752 7.63732e-010
-0.502653 -6.15752 8.19978e-010
-0.376989 -6.15752 8.66573e-010
-0.251325 -6.15752 9.01469e-010
-0.125662 -6.15752 9.23076e-010
1.93715e-006 -6.15752 9.30393e-010
0.125666 -6.15752 9.23076e-010
0.251329 -6.15752 9.01468e-010
0.376993 -6.15752 8.66572e-010
0.502657 -6.15752 8.19976e-010
0.62832 -6.15752 7.6373e-010
0.753984 -6.15752 7.00197e-010
0.879648 -6.15752 6.31891e-010
1.00531 -6.15752 5.61315e-010
1.13098 -6.15752 4.90809e-010
1.25664 -6.15752 4.22435e-010
1.3823 -6.15752 3.5789e-010
1.50797 -6.15752 2.98457e-010
1.63363 -6.15752 2.44994e-010
1.75929 -6.15752 1.97957e-010
1.88496 -6.15752 1.57445e-010
2.01062 -6.15752 1.23261e-010
2.13629 -6.15752 9.49879e-011
2.26195 -6.15752 7.20529e-011
2.38761 -6.15752 5.37993e-011
2.51328 -6.15752 3.95406e-011
2.63894 -6.15752 2.86057e-011
2.7646 -6.15752 2.03705e-011
2.89027 -6.15752 1.42789e-011
3.01593 -6.15752 9.85211e-012
3.1416 -6.15752 6.69122e-012
3.26726 -6.15752 4.47325e-012
3.39292 -6.15752 2.94363e-012
3.51859 -6.15752 1.90671e-012
3.64425 -6.15752 1.21571e-012
3.76991 -6.15752 7.62983e-013
3.89558 -6.15752 4.71349e-013
4.02124 -6.15752 2.86624e-013
4.14691 -6.15752 1.71563e-013
4.27257 -6.15752 1.01083e-013
4.39823 -6.15752 5.86235e-014
4.5239 -6.15752 3.34664e-014
4.64956 -6.15752 1.88056e-014
4.77522 -6.15752 1.04018e-014
4.90089 -6.15752 5.66332e-015
5.02655 -6.15752 3.03512e-015
5.15222 -6.15752 1.60112e-015
5.27788 -6.15752 8.31402e-016
5.40354 -6.15752 4.24953e-016
5.52921 -6.15752 2.13803e-016
5.65487 -6.15752 1.05883e-016
5.78053 -6.15752 5.16159e-017
5.9062 -6.15752 2.47675e-017
6.03186 -6.15752 1.16982e-017
6.15753 -6.15752 5.4388e-018
-6.28319 -6.03186 5.3537e-018
-6.15752 -6.03186 1.16985e-017
-6.03186 -6.03186 2.51622e-017
-5.90619 -6.03186 5.32732e-017
-5.78053 -6.03186 1.11022e-016
-5.65487 -6.03186 2.27748e-016
-5.5292 -6.03186 4.59876e-016
-5.40354 -6.03186 9.14045e-016
-5.27788 -6.03186 1.78829e-015
-5.15221 -6.03186 3.44389e-015
-5.02655 -6.03186 6.52833e-015
-4.90088 -6.03186 1.21814e-014
-4.77522 -6.03186 2.23735e-014
-4.64956 -6.03186 4.04495e-014
-4.52389 -6.03186 7.19837e-014
-4.39823 -6.03186 1.26095e-013
-4.27257 -6.03186 2.17421e-013
-4.1469 -6.03186 3.69019e-013
-4.02124 -6.03186 6.16505e-013
-3.89557 -6.03186 1.01383e-012
-3.76991 -6.03186 1.64112e-012
-3.64425 -6.03186 2.61489e-012
-3.51858 -6.03186 4.10118e-012
-3.39292 -6.03186 6.33151e-012
-3.26726 -6.03186 9.62159e-012
-3.14159 -6.03186 1.43922e-011
-3.01593 -6.03186 2.1191e-011
-2.89026 -6.03186 3.07127e-011
-2.7646 -6.03186 4.38152e-011
-2.63894 -6.03186 6.15282e-011
-2.51327 -6.03186 8.50482e-011
-2.38761 -6.03186 1.15717e-010
-2.26195 -6.03186 1.54979e-010
-2.13628 -6.03186 2.0431e-010
-2.01062 -6.03186 2.65124e-010
-1.88495 -6.03186 3.38648e-010
-1.75929 -6.03186 4.25786e-010
-1.63363 -6.03186 5.26958e-010
-1.50796 -6.03186 6.41951e-010
-1.3823 -6.03186 7.69786e-010
-1.25664 -6.03186 9.08615e-010
-1.13097 -6.03186 1.05568e-009
-1.00531 -6.03186 1.20733e-009
-0.879644 -6.03186 1.35913e-009
-0.75398 -6.03186 1.50605e-009
-0.628317 -6.03186 1.6427e-009
-0.502653 -6.03186 1.76368e-009
-0.376989 -6.03186 1.8639e-009
-0.251325 -6.03186 1.93896e-009
-0.125662 -6.03186 1.98543e-009
1.93715e-006 -6.03186 2.00117e-009
0.125666 -6.03186 1.98543e-009
0.251329 -6.03186 1.93896e-009
0.376993 -6.03186 1.8639e-009
0.502657 -6.03186 1.76368e-009
0.62832 -6.03186 1.6427e-009
0.753984 -6.03186 1.50604e-009
0.879648 -6.03186 1.35913e-009
1.00531 -6.03186 1.20732e-009
1.13098 -6.03186 1.05567e-009
1.25664 -6.03186 9.08611e-010
1.3823 -6.03186 7.69782e-010
1.50797 -6.03186 6.41947e-010
1.63363 -6.03186 5.26954e-010
1.75929 -6.03186 4.25783e-010
1.88496 -6.03186 3.38646e-010
2.01062 -6.03186 2.65122e-010
2.13629 -6.03186 2.04308e-010
2.26195 -6.03186 1.54978e-010
2.38761 -6.03186 1.15716e-010
2.51328 -6.03186 8.50474e-011
2.63894 -6.03186 6.15275e-011
2.7646 -6.03186 4.38147e-011
2.89027 -6.03186 3.07123e-011
3.01593 -6.03186 2.11908e-011
3.1416 -6.03186 1.43921e-011
3.26726 -6.03186 9.62147e-012
3.39292 -6.03186 6.33142e-012
3.51859 -6.03186 4.10113e-012
3.64425 -6.03186 2.61485e-012
3.76991 -6.03186 1.64109e-012
3.89558 -6.03186 1.01382e-012
4.02124 -6.03186 6.16495e-013
4.14691 -6.03186 3.69013e-013
4.27257 -6.03186 2.17418e-013
4.39823 -6.03186 1.26093e-013
4.5239 -6.03186 7.19825e-014
4.64956 -6.03186 4.04488e-014
4.77522 -6.03186 2.23731e-014
4.90089 -6.03186 1.21812e-014
5.02655 -6.03186 6.52821e-015
5.15222 -6.03186 3.44382e-015
5.27788 -6.03186 1.78825e-015
5.40354 -6.03186 9.14027e-016
5.52921 -6.03186 4.59866e-016
5.65487 -6.03186 2.27743e-016
5.78053 -6.03186 1.1102e-016
5.9062 -6.03186 5.3272e-017
6.03186 -6.03186 2.51616e-017
6.15753 -6.03186 1.16982e-017
-6.28319 -5.90619 1.13348e-017
-6.15752 -5.90619 2.4768e-017
-6.03186 -5.90619 5.32732e-017
-5.90619 -5.90619 1.1279e-016
-5.78053 -5.90619 2.35056e-016
-5.65487 -5.90619 4.82187e-016
-5.5292 -5.90619 9.73646e-016
-5.40354 -5.90619 1.93521e-015
-5.27788 -5.90619 3.78615e-015
-5.15221 -5.90619 7.29138e-015
-5.02655 -5.90619 1.38217e-014
-4.90088 -5.90619 2.57904e-014
-4.77522 -5.90619 4.73691e-014
-4.64956 -5.90619 8.56394e-014
-4.52389 -5.90619 1.52403e-013
-4.39823 -5.90619 2.66967e-013
-4.27257 -5.90619 4.60323e-013
-4.1469 -5.90619 7.81284e-013
-4.02124 -5.90619 1.30526e-012
-3.89557 -5.90619 2.14648e-012
-3.76991 -5.90619 3.47456e-012
-3.64425 -5.90619 5.53623e-012
-3.51858 -5.90619 8.683e-012
-3.39292 -5.90619 1.3405e-011
-3.26726 -5.90619 2.03708e-011
-3.14159 -5.90619 3.04712e-011
-3.01593 -5.90619 4.48655e-011
-2.89026 -5.90619 6.50246e-011
-2.7646 -5.90619 9.27652e-011
-2.63894 -5.90619 1.30267e-010
-2.51327 -5.90619 1.80064e-010
-2.38761 -5.90619 2.44996e-010
-2.26195 -5.90619 3.28121e-010
-2.13628 -5.90619 4.32564e-010
-2.01062 -5.90619 5.61318e-010
-1.88495 -5.90619 7.16984e-010
-1.75929 -5.90619 9.01472e-010
-1.63363 -5.90619 1.11567e-009
-1.50796 -5.90619 1.35914e-009
-1.3823 -5.90619 1.62979e-009
-1.25664 -5.90619 1.92371e-009
-1.13097 -5.90619 2.23508e-009
-1.00531 -5.90619 2.55615e-009
-0.879644 -5.90619 2.87754e-009
-0.75398 -5.90619 3.1886e-009
-0.628317 -5.90619 3.47792e-009
-0.502653 -5.90619 3.73405e-009
-0.376989 -5.90619 3.94624e-009
-0.251325 -5.90619 4.10515e-009
-0.125662 -5.90619 4.20355e-009
1.93715e-006 -5.90619 4.23687e-009
0.125666 -5.90619 4.20355e-009
0.251329 -5.90619 4.10515e-009
0.376993 -5.90619 3.94624e-009
0.502657 -5.90619 3.73405e-009
0.62832 -5.90619 3.47791e-009
0.753984 -5.90619 3.18859e-009
0.879648 -5.90619 2.87754e-009
1.00531 -5.90619 2.55614e-009
1.13098 -5.90619 2.23507e-009
1.25664 -5.90619 1.92371e-009
1.3823 -5.90619 1.62978e-009
1.50797 -5.90619 1.35913e-009
1.63363 -5.90619 1.11566e-009
1.75929 -5.90619 9.01465e-010
1.88496 -5.90619 7.16979e-010
2.01062 -5.90619 5.61314e-010
2.13629 -5.90619 4.3256e-010
2.26195 -5.90619 3.28118e-010
2.38761 -5.90619 2.44994e-010
2.51328 -5.90619 1.80062e-010
2.63894 -5.90619 1.30266e-010
2.7646 -5.90619 9.27643e-011
2.89027 -5.90619 6.50239e-011
3.01593 -5.90619 4.4865e-011
3.1416 -5.90619 3.04708e-011
3.26726 -5.90619 2.03705e-011
3.39292 -5.90619 1.34049e-011
3.51859 -5.90619 8.68288e-012
3.64425 -5.90619 5.53615e-012
3.76991 -5.90619 3.47451e-012
3.89558 -5.90619 2.14645e-012
4.02124 -5.90619 1.30524e-012
4.14691 -5.90619 7.81271e-013
4.27257 -5.90619 4.60315e-013
4.39823 -5.90619 2.66962e-013
4.5239 -5.90619 1.52401e-013
4.64956 -5.90619 8.5638e-014
4.77522 -5.90619 4.73682e-014
4.90089 -5.90619 2.57899e-014
5.02655 -5.90619 1.38215e-014
5.15222 -5.90619 7.29123e-015
5.27788 -5.90619 3.78608e-015
5.40354 -5.90619 1.93517e-015
5.52921 -5.90619 9.73626e-016
5.65487 -5.90619 4.82176e-016
5.78053 -5.90619 2.35051e-016
5.9062 -5.90619 1.12787e-016
6.03186 -5.90619 5.3272e-017
6.15753 -5.90619 2.47675e-017
-6.28319 -5.78053 2.3622e-017
-6.15752 -5.78053 5.16171e-017
-6.03186 -5.78053 1.11022e-016
-5.90619 -5.78053 2.35056e-016
-5.78053 -5.78053 4.89862e-016
-5.65487 -5.78053 1.00489e-015
-5.5292 -5.78053 2.0291e-015
-5.40354 -5.78053 4.03302e-015
-5.27788 -5.78053 7.89042e-015
-5.15221 -5.78053 1.51954e-014
-5.02655 -5.78053 2.88048e-014
-4.90088 -5.78053 5.37477e-014
-4.77522 -5.78053 9.87181e-014
-4.64956 -5.78053 1.78474e-013
-4.52389 -5.78053 3.17612e-013
-4.39823 -5.78053 5.56365e-013
-4.27257 -5.78053 9.59322e-013
-4.1469 -5.78053 1.62821e-012
-4.02124 -5.78053 2.72019e-012
-3.89557 -5.78053 4.47331e-012
-3.76991 -5.78053 7.24105e-012
-3.64425 -5.78053 1.15376e-011
-3.51858 -5.78053 1.80955e-011
-3.39292 -5.78053 2.79363e-011
-3.26726 -5.78053 4.24531e-011
-3.14159 -5.78053 6.35025e-011
-3.01593 -5.78053 9.35006e-011
-2.89026 -5.78053 1.35513e-010
-2.7646 -5.78053 1.93325e-010
-2.63894 -5.78053 2.71479e-010
-2.51327 -5.78053 3.75256e-010
-2.38761 -5.78053 5.10576e-010
-2.26195 -5.78053 6.8381e-010
-2.13628 -5.78053 9.01472e-010
-2.01062 -5.78053 1.1698e-009
-1.88495 -5.78053 1.49421e-009
-1.75929 -5.78053 1.87868e-009
-1.63363 -5.78053 2.32508e-009
-1.50796 -5.78053 2.83246e-009
-1.3823 -5.78053 3.39651e-009
-1.25664 -5.78053 4.00906e-009
-1.13097 -5.78053 4.65795e-009
-1.00531 -5.78053 5.32707e-009
-0.879644 -5.78053 5.99686e-009
-0.75398 -5.78053 6.6451e-009
-0.628317 -5.78053 7.24805e-009
-0.502653 -5.78053 7.78184e-009
-0.376989 -5.78053 8.22405e-009
-0.251325 -5.78053 8.55521e-009
-0.125662 -5.78053 8.76028e-009
1.93715e-006 -5.78053 8.82972e-009
0.125666 -5.78053 8.76027e-009
0.251329 -5.78053 8.5552e-009
0.376993 -5.78053 8.22404e-009
0.502657 -5.78053 7.78183e-009
0.62832 -5.78053 7.24803e-009
0.753984 -5.78053 6.64508e-009
0.879648 -5.78053 5.99684e-009
1.00531 -5.78053 5.32705e-009
1.13098 -5.78053 4.65793e-009
1.25664 -5.78053 4.00904e-009
1.3823 -5.78053 3.39649e-009
1.50797 -5.78053 2.83245e-009
1.63363 -5.78053 2.32507e-009
1.75929 -5.78053 1.87867e-009
1.88496 -5.78053 1.4942e-009
2.01062 -5.78053 1.16979e-009
2.13629 -5.78053 9.01465e-010
2.26195 -5.78053 6.83804e-010
2.38761 -5.78053 5.10572e-010
2.51328 -5.78053 3.75252e-010
2.63894 -5.78053 2.71476e-010
2.7646 -5.78053 1.93323e-010
2.89027 -5.78053 1.35511e-010
3.01593 -5.78053 9.34995e-011
3.1416 -5.78053 6.35018e-011
3.26726 -5.78053 4.24526e-011
3.39292 -5.78053 2.7936e-011
3.51859 -5.78053 1.80953e-011
3.64425 -5.78053 1.15374e-011
3.76991 -5.78053 7.24095e-012
3.89558 -5.78053 4.47325e-012
4.02124 -5.78053 2.72015e-012
4.14691 -5.78053 1.62818e-012
4.27257 -5.78053 9.59306e-013
4.39823 -5.78053 5.56355e-013
4.5239 -5.78053 3.17606e-013
4.64956 -5.78053 1.78471e-013
4.77522 -5.78053 9.87163e-014
4.90089 -5.78053 5.37467e-014
5.02655 -5.78053 2.88042e-014
5.15222 -5.78053 1.51951e-014
5.27788 -5.78053 7.89026e-015
5.40354 -5.78053 4.03294e-015
5.52921 -5.78053 2.02906e-015
5.65487 -5.78053 1.00487e-015
5.78053 -5.78053 4.8985e-016
5.9062 -5.78053 2.35051e-016
6.03186 -5.78053 1.1102e-016
6.15753 -5.78053 5.16159e-017
-6.28319 -5.65487 4.84574e-017
-6.15752 -5.65487 1.05886e-016
-6.03186 -5.65487 2.27748e-016
-5.90619 -5.65487 4.82187e-016
-5.78053 -5.65487 1.00489e-015
-5.65487 -5.65487 2.06139e-015
-5.5292 -5.65487 4.16243e-015
-5.40354 -5.65487 8.27321e-015
-5.27788 -5.65487 1.61862e-014
-5.15221 -5.65487 3.11713e-014
-5.02655 -5.65487 5.90892e-014
-4.90088 -5.65487 1.10256e-013
-4.77522 -5.65487 2.02507e-013
-4.64956 -5.65487 3.66116e-013
-4.52389 -5.65487 6.51539e-013
-4.39823 -5.65487 1.14131e-012
-4.27257 -5.65487 1.96792e-012
-4.1469 -5.65487 3.34006e-012
-4.02124 -5.65487 5.58011e-012
-3.89557 -5.65487 9.17641e-012
-3.76991 -5.65487 1.48541e-011
-3.64425 -5.65487 2.36679e-011
-3.51858 -5.65487 3.71206e-011
-3.39292 -5.65487 5.73077e-011
-3.26726 -5.65487 8.70869e-011
-3.14159 -5.65487 1.30267e-010
-3.01593 -5.65487 1.91804e-010
-2.89026 -5.65487 2.77986e-010
-2.7646 -5.65487 3.9658e-010
-2.63894 -5.65487 5.56904e-010
-2.51327 -5.65487 7.69788e-010
-2.38761 -5.65487 1.04738e-009
-2.26195 -5.65487 1.40275e-009
-2.13628 -5.65487 1.84925e-009
-2.01062 -5.65487 2.39969e-009
-1.88495 -5.65487 3.06517e-009
-1.75929 -5.65487 3.85387e-009
-1.63363 -5.65487 4.7696e-009
-1.50796 -5.65487 5.81043e-009
-1.3823 -5.65487 6.96749e-009
-1.25664 -5.65487 8.22406e-009
-1.13097 -5.65487 9.55516e-009
-1.00531 -5.65487 1.09278e-008
-0.879644 -5.65487 1.23018e-008
-0.75398 -5.65487 1.36315e-008
-0.628317 -5.65487 1.48684e-008
-0.502653 -5.65487 1.59634e-008
-0.376989 -5.65487 1.68705e-008
-0.251325 -5.65487 1.75499e-008
-0.125662 -5.65487 1.79705e-008
1.93715e-006 -5.65487 1.8113e-008
0.125666 -5.65487 1.79705e-008
0.251329 -5.65487 1.75499e-008
0.376993 -5.65487 1.68705e-008
0.502657 -5.65487 1.59634e-008
0.62832 -5.65487 1.48684e-008
0.753984 -5.65487 1.36315e-008
0.879648 -5.65487 1.23017e-008
1.00531 -5.65487 1.09277e-008
1.13098 -5.65487 9.55512e-009
1.25664 -5.65487 8.22402e-009
1.3823 -5.65487 6.96745e-009
1.50797 -5.65487 5.81039e-009
1.63363 -5.65487 4.76957e-009
1.75929 -5.65487 3.85385e-009
1.88496 -5.65487 3.06515e-009
2.01062 -5.65487 2.39967e-009
2.13629 -5.65487 1.84924e-009
2.26195 -5.65487 1.40273e-009
2.38761 -5.65487 1.04737e-009
2.51328 -5.65487 7.6978e-010
2.63894 -5.65487 5.56898e-010
2.7646 -5.65487 3.96576e-010
2.89027 -5.65487 2.77983e-010
3.01593 -5.65487 1.91802e-010
3.1416 -5.65487 1.30265e-010
3.26726 -5.65487 8.70858e-011
3.39292 -5.65487 5.7307e-011
3.51859 -5.65487 3.71201e-011
3.64425 -5.65487 2.36675e-011
3.76991 -5.65487 1.48538e-011
3.89558 -5.65487 9.17627e-012
4.02124 -5.65487 5.58002e-012
4.14691 -5.65487 3.34001e-012
4.27257 -5.65487 1.96789e-012
4.39823 -5.65487 1.14129e-012
4.5239 -5.65487 6.51528e-013
4.64956 -5.65487 3.6611e-013
4.77522 -5.65487 2.02503e-013
4.90089 -5.65487 1.10254e-013
5.02655 -5.65487 5.90881e-014
5.15222 -5.65487 3.11707e-014
5.27788 -5.65487 1.61858e-014
5.40354 -5.65487 8.27304e-015
5.52921 -5.65487 4.16234e-015
5.65487 -5.65487 2.06135e-015
5.78053 -5.65487 1.00486e-015
5.9062 -5.65487 4.82176e-016
6.03186 -5.65487 2.27743e-016
6.15753 -5.65487 1.05883e-016
-6.28319 -5.5292 9.78467e-017
-6.15752 -5.5292 2.13807e-016
-6.03186 -5.5292 4.59876e-016
-5.90619 -5.5292 9.73646e-016
-5.78053 -5.5292 2.0291e-015
-5.65487 -5.5292 4.16243e-015
-5.5292 -5.5292 8.4049e-015
-5.40354 -5.5292 1.67055e-014
-5.27788 -5.5292 3.26836e-014
-5.15221 -5.5292 6.29421e-014
-5.02655 -5.5292 1.19315e-013
-4.90088 -5.5292 2.22633e-013
-4.77522 -5.5292 4.08909e-013
-4.64956 -5.5292 7.39274e-013
-4.52389 -5.5292 1.31561e-012
-4.39823 -5.5292 2.30457e-012
-4.27257 -5.5292 3.97369e-012
-4.1469 -5.5292 6.74435e-012
-4.02124 -5.5292 1.12675e-011
-3.89557 -5.5292 1.85293e-011
-3.76991 -5.5292 2.99938e-011
-3.64425 -5.5292 4.77909e-011
-3.51858 -5.5292 7.49551e-011
-3.39292 -5.5292 1.15718e-010
-3.26726 -5.5292 1.75849e-010
-3.14159 -5.5292 2.63039e-010
-3.01593 -5.5292 3.87297e-010
-2.89026 -5.5292 5.61319e-010
-2.7646 -5.5292 8.00787e-010
-2.63894 -5.5292 1.12452e-009
-2.51327 -5.5292 1.55438e-009
-2.38761 -5.5292 2.1149e-009
-2.26195 -5.5292 2.83247e-009
-2.13628 -5.5292 3.73406e-009
-2.01062 -5.5292 4.84552e-009
-1.88495 -5.5292 6.18929e-009
-1.75929 -5.5292 7.78186e-009
-1.63363 -5.5292 9.63092e-009
-1.50796 -5.5292 1.17326e-008
-1.3823 -5.5292 1.4069e-008
-1.25664 -5.5292 1.66063e-008
-1.13097 -5.5292 1.92941e-008
-1.00531 -5.5292 2.20657e-008
-0.879644 -5.5292 2.48401e-008
-0.75398 -5.5292 2.75252e-008
-0.628317 -5.5292 3.00228e-008
-0.502653 -5.5292 3.22338e-008
-0.376989 -5.5292 3.40655e-008
-0.251325 -5.5292 3.54373e-008
-0.125662 -5.5292 3.62867e-008
1.93715e-006 -5.5292 3.65743e-008
0.125666 -5.5292 3.62867e-008
0.251329 -5.5292 3.54372e-008
0.376993 -5.5292 3.40655e-008
0.502657 -5.5292 3.22338e-008
0.62832 -5.5292 3.00227e-008
0.753984 -5.5292 2.75252e-008
0.879648 -5.5292 2.484e-008
1.00531 -5.5292 2.20656e-008
1.13098 -5.5292 1.9294e-008
1.25664 -5.5292 1.66062e-008
1.3823 -5.5292 1.40689e-008
1.50797 -5.5292 1.17325e-008
1.63363 -5.5292 9.63086e-009
1.75929 -5.5292 7.78181e-009
1.88496 -5.5292 6.18925e-009
2.01062 -5.5292 4.84548e-009
2.13629 -5.5292 3.73403e-009
2.26195 -5.5292 2.83244e-009
2.38761 -5.5292 2.11488e-009
2.51328 -5.5292 1.55436e-009
2.63894 -5.5292 1.12451e-009
2.7646 -5.5292 8.00778e-010
2.89027 -5.5292 5.61312e-010
3.01593 -5.5292 3.87293e-010
3.1416 -5.5292 2.63036e-010
3.26726 -5.5292 1.75846e-010
3.39292 -5.5292 1.15716e-010
3.51859 -5.5292 7.49541e-011
3.64425 -5.5292 4.77902e-011
3.76991 -5.5292 2.99933e-011
3.89558 -5.5292 1.8529e-011
4.02124 -5.5292 1.12673e-011
4.14691 -5.5292 6.74424e-012
4.27257 -5.5292 3.97362e-012
4.39823 -5.5292 2.30453e-012
4.5239 -5.5292 1.31558e-012
4.64956 -5.5292 7.39261e-013
4.77522 -5.5292 4.08901e-013
4.90089 -5.5292 2.22629e-013
5.02655 -5.5292 1.19313e-013
5.15222 -5.5292 6.29408e-014
5.27788 -5.5292 3.26829e-014
5.40354 -5.5292 1.67052e-014
5.52921 -5.5292 8.40472e-015
5.65487 -5.5292 4.16234e-015
5.78053 -5.5292 2.02905e-015
5.9062 -5.5292 9.73624e-016
6.03186 -5.5292 4.59865e-016
6.15753 -5.5292 2.13803e-016
-6.28319 -5.40354 1.94479e-016
-6.15752 -5.40354 4.24962e-016
-6.03186 -5.40354 9.14045e-016
-5.90619 -5.40354 1.93521e-015
-5.78053 -5.40354 4.03302e-015
-5.65487 -5.40354 8.27321e-015
-5.5292 -5.40354 1.67055e-014
-5.40354 -5.40354 3.32038e-014
-5.27788 -5.40354 6.49616e-014
-5.15221 -5.40354 1.25103e-013
-5.02655 -5.40354 2.37149e-013
-4.90088 -5.40354 4.42504e-013
-4.77522 -5.40354 8.12744e-013
-4.64956 -5.40354 1.46937e-012
-4.52389 -5.40354 2.61489e-012
-4.39823 -5.40354 4.58054e-012
-4.27257 -5.40354 7.89807e-012
-4.1469 -5.40354 1.3405e-011
-4.02124 -5.40354 2.23953e-011
-3.89557 -5.40354 3.68287e-011
-3.76991 -5.40354 5.96154e-011
-3.64425 -5.40354 9.49888e-011
-3.51858 -5.40354 1.4898e-010
-3.39292 -5.40354 2.29999e-010
-3.26726 -5.40354 3.49515e-010
-3.14159 -5.40354 5.22815e-010
-3.01593 -5.40354 7.69788e-010
-2.89026 -5.40354 1.11567e-009
-2.7646 -5.40354 1.59164e-009
-2.63894 -5.40354 2.23508e-009
-2.51327 -5.40354 3.08947e-009
-2.38761 -5.40354 4.20356e-009
-2.26195 -5.40354 5.62979e-009
-2.13628 -5.40354 7.4218e-009
-2.01062 -5.40354 9.63092e-009
-1.88495 -5.40354 1.23018e-008
-1.75929 -5.40354 1.54672e-008
-1.63363 -5.40354 1.91423e-008
-1.50796 -5.40354 2.33196e-008
-1.3823 -5.40354 2.79634e-008
-1.25664 -5.40354 3.30065e-008
-1.13097 -5.40354 3.83488e-008
-1.00531 -5.40354 4.38576e-008
-0.879644 -5.40354 4.9372e-008
-0.75398 -5.40354 5.4709e-008
-0.628317 -5.40354 5.9673e-008
-0.502653 -5.40354 6.40677e-008
-0.376989 -5.40354 6.77084e-008
-0.251325 -5.40354 7.04349e-008
-0.125662 -5.40354 7.21232e-008
1.93715e-006 -5.40354 7.26949e-008
0.125666 -5.40354 7.21231e-008
0.251329 -5.40354 7.04348e-008
0.376993 -5.40354 6.77083e-008
0.502657 -5.40354 6.40676e-008
0.62832 -5.40354 5.96729e-008
0.753984 -5.40354 5.47088e-008
0.879648 -5.40354 4.93718e-008
1.00531 -5.40354 4.38575e-008
1.13098 -5.40354 3.83486e-008
1.25664 -5.40354 3.30063e-008
1.3823 -5.40354 2.79632e-008
1.50797 -5.40354 2.33195e-008
1.63363 -5.40354 1.91422e-008
1.75929 -5.40354 1.54671e-008
1.88496 -5.40354 1.23017e-008
2.01062 -5.40354 9.63085e-009
2.13629 -5.40354 7.42174e-009
2.26195 -5.40354 5.62974e-009
2.38761 -5.40354 4.20352e-009
2.51328 -5.40354 3.08944e-009
2.63894 -5.40354 2.23506e-009
2.7646 -5.40354 1.59162e-009
2.89027 -5.40354 1.11566e-009
3.01593 -5.40354 7.6978e-010
3.1416 -5.40354 5.22808e-010
3.26726 -5.40354 3.49511e-010
3.39292 -5.40354 2.29996e-010
3.51859 -5.40354 1.48978e-010
3.64425 -5.40354 9.49875e-011
3.76991 -5.40354 5.96145e-011
3.89558 -5.40354 3.68281e-011
4.02124 -5.40354 2.23949e-011
4.14691 -5.40354 1.34048e-011
4.27257 -5.40354 7.89794e-012
4.39823 -5.40354 4.58046e-012
4.5239 -5.40354 2.61485e-012
4.64956 -5.40354 1.46935e-012
4.77522 -5.40354 8.12729e-013
4.90089 -5.40354 4.42495e-013
5.02655 -5.40354 2.37145e-013
5.15222 -5.40354 1.25101e-013
5.27788 -5.40354 6.49603e-014
5.40354 -5.40354 3.32031e-014
5.52921 -5.40354 1.67052e-014
5.65487 -5.40354 8.27303e-015
5.78053 -5.40354 4.03293e-015
5.9062 -5.40354 1.93517e-015
6.03186 -5.40354 9.14025e-016
6.15753 -5.40354 4.24952e-016
-6.28319 -5.27788 3.8049e-016
-6.15752 -5.27788 8.31419e-016
-6.03186 -5.27788 1.78829e-015
-5.90619 -5.27788 3.78615e-015
-5.78053 -5.27788 7.89042e-015
-5.65487 -5.27788 1.61862e-014
-5.5292 -5.27788 3.26836e-014
-5.40354 -5.27788 6.49616e-014
-5.27788 -5.27788 1.27095e-013
-5.15221 -5.27788 2.44759e-013
-5.02655 -5.27788 4.63972e-013
-4.90088 -5.27788 8.65738e-013
-4.77522 -5.27788 1.5901e-012
-4.64956 -5.27788 2.87477e-012
-4.52389 -5.27788 5.11592e-012
-4.39823 -5.27788 8.96161e-012
-4.27257 -5.27788 1.54522e-011
-4.1469 -5.27788 2.62263e-011
-4.02124 -5.27788 4.38153e-011
-3.89557 -5.27788 7.20537e-011
-3.76991 -5.27788 1.16635e-010
-3.64425 -5.27788 1.85841e-010
-3.51858 -5.27788 2.91473e-010
-3.39292 -5.27788 4.49983e-010
-3.26726 -5.27788 6.83811e-010
-3.14159 -5.27788 1.02286e-009
-3.01593 -5.27788 1.50606e-009
-2.89026 -5.27788 2.18276e-009
-2.7646 -5.27788 3.11397e-009
-2.63894 -5.27788 4.37284e-009
-2.51327 -5.27788 6.04442e-009
-2.38761 -5.27788 8.22408e-009
-2.26195 -5.27788 1.10144e-008
-2.13628 -5.27788 1.45204e-008
-2.01062 -5.27788 1.88425e-008
-1.88495 -5.27788 2.40679e-008
-1.75929 -5.27788 3.02608e-008
-1.63363 -5.27788 3.74511e-008
-1.50796 -5.27788 4.56238e-008
-1.3823 -5.27788 5.47091e-008
-1.25664 -5.27788 6.45757e-008
-1.13097 -5.27788 7.50276e-008
-1.00531 -5.27788 8.58055e-008
-0.879644 -5.27788 9.65941e-008
-0.75398 -5.27788 1.07036e-007
-0.628317 -5.27788 1.16748e-007
-0.502653 -5.27788 1.25346e-007
-0.376989 -5.27788 1.32468e-007
-0.251325 -5.27788 1.37803e-007
-0.125662 -5.27788 1.41106e-007
1.93715e-006 -5.27788 1.42224e-007
0.125666 -5.27788 1.41106e-007
0.251329 -5.27788 1.37802e-007
0.376993 -5.27788 1.32468e-007
0.502657 -5.27788 1.25345e-007
0.62832 -5.27788 1.16747e-007
0.753984 -5.27788 1.07035e-007
0.879648 -5.27788 9.65938e-008
1.00531 -5.27788 8.58051e-008
1.13098 -5.27788 7.50273e-008
1.25664 -5.27788 6.45754e-008
1.3823 -5.27788 5.47088e-008
1.50797 -5.27788 4.56235e-008
1.63363 -5.27788 3.74509e-008
1.75929 -5.27788 3.02606e-008
1.88496 -5.27788 2.40677e-008
2.01062 -5.27788 1.88423e-008
2.13629 -5.27788 1.45203e-008
2.26195 -5.27788 1.10143e-008
2.38761 -5.27788 8.224e-009
2.51328 -5.27788 6.04436e-009
2.63894 -5.27788 4.37279e-009
2.7646 -5.27788 3.11393e-009
2.89027 -5.27788 2.18274e-009
3.01593 -5.27788 1.50604e-009
3.1416 -5.27788 1.02285e-009
3.26726 -5.27788 6.83802e-010
3.39292 -5.27788 4.49977e-010
3.51859 -5.27788 2.91469e-010
3.64425 -5.27788 1.85839e-010
3.76991 -5.27788 1.16633e-010
3.89558 -5.27788 7.20526e-011
4.02124 -5.27788 4.38146e-011
4.14691 -5.27788 2.62259e-011
4.27257 -5.27788 1.5452e-011
4.39823 -5.27788 8.96146e-012
4.5239 -5.27788 5.11583e-012
4.64956 -5.27788 2.87472e-012
4.77522 -5.27788 1.59007e-012
4.90089 -5.27788 8.65722e-013
5.02655 -5.27788 4.63963e-013
5.15222 -5.27788 2.44754e-013
5.27788 -5.27788 1.27092e-013
5.40354 -5.27788 6.49603e-014
5.52921 -5.27788 3.26829e-014
5.65487 -5.27788 1.61858e-014
5.78053 -5.27788 7.89024e-015
5.9062 -5.27788 3.78607e-015
6.03186 -5.27788 1.78825e-015
6.15753 -5.27788 8.314e-016
-6.28319 -5.15221 7.32748e-016
-6.15752 -5.15221 1.60115e-015
-6.03186 -5.15221 3.44389e-015
-5.90619 -5.15221 7.29138e-015
-5.78053 -5.15221 1.51954e-014
-5.65487 -5.15221 3.11713e-014
-5.5292 -5.15221 6.29421e-014
-5.40354 -5.15221 1.25103e-013
-5.27788 -5.15221 2.44759e-013
-5.15221 -5.15221 4.71357e-013
-5.02655 -5.15221 8.93517e-013
-4.90088 -5.15221 1.66724e-012
-4.77522 -5.15221 3.06221e-012
-4.64956 -5.15221 5.53623e-012
-4.52389 -5.15221 9.85224e-012
-4.39823 -5.15221 1.72583e-011
-4.27257 -5.15221 2.97579e-011
-4.1469 -5.15221 5.05067e-011
-4.02124 -5.15221 8.43796e-011
-3.89557 -5.15221 1.38761e-010
-3.76991 -5.15221 2.24615e-010
-3.64425 -5.15221 3.57894e-010
-3.51858 -5.15221 5.61319e-010
-3.39292 -5.15221 8.66578e-010
-3.26726 -5.15221 1.31688e-009
-3.14159 -5.15221 1.96983e-009
-3.01593 -5.15221 2.90036e-009
-2.89026 -5.15221 4.20357e-009
-2.7646 -5.15221 5.99688e-009
-2.63894 -5.15221 8.42121e-009
-2.51327 -5.15221 1.16403e-008
-2.38761 -5.15221 1.58379e-008
-2.26195 -5.15221 2.12116e-008
-2.13628 -5.15221 2.79634e-008
-2.01062 -5.15221 3.62868e-008
-1.88495 -5.15221 4.635e-008
-1.75929 -5.15221 5.82763e-008
-1.63363 -5.15221 7.21234e-008
-1.50796 -5.15221 8.78623e-008
-1.3823 -5.15221 1.05359e-007
-1.25664 -5.15221 1.2436e-007
-1.13097 -5.15221 1.44488e-007
-1.00531 -5.15221 1.65244e-007
-0.879644 -5.15221 1.86021e-007
-0.75398 -5.15221 2.06129e-007
-0.628317 -5.15221 2.24833e-007
-0.502653 -5.15221 2.41391e-007
-0.376989 -5.15221 2.55108e-007
-0.251325 -5.15221 2.6538e-007
-0.125662 -5.15221 2.71741e-007
1.93715e-006 -5.15221 2.73896e-007
0.125666 -5.15221 2.71741e-007